; GENERATED BY LigParGen Server
; Jorgensen Lab @ Yale University
;;;;;;;;;;;;;;;;;;;;;;;;;;;;;;;;;;;;;;;;;;;;;;;;;;;;;;;;;;;;;;;;;;;;
; Combined atomtypes of EC/EMC and TFMSPyr
; First and second column of [ atomtypes ] are made identical
; Consistent required changes are made in [ atoms ]
; Edited by VMS on Nov-06-2025
;;;;;;;;;;;;;;;;;;;;;;;;;;;;;;;;;;;;;;;;;;;;;;;;;;;;;;;;;;;;;;;;;;;;

[ atomtypes ]
; at.name	at.num/b_type	mass	charge	ptype	sigma	epsilon
H810	H810	1.008	0	A	2.5000E-01	1.2552E-01
C802	C802	12.011	0	A	3.5000E-01	2.7614E-01
F818	F818	18.9984	0	A	2.9000E-01	2.5104E-01
C800	C800	12.011	0	A	3.5000E-01	2.7614E-01
C801	C801	12.011	0	A	3.5000E-01	2.7614E-01
H809	H809	1.008	0	A	2.5000E-01	1.2552E-01
H814	H814	1.008	0	A	2.5000E-01	1.2552E-01
H808	H808	1.008	0	A	2.5000E-01	1.2552E-01
H812	H812	1.008	0	A	2.5000E-01	1.2552E-01
C806	C806	12.011	0	A	3.5000E-01	2.7614E-01
O816	O816	15.999	0	A	2.9600E-01	7.1128E-01
H811	H811	1.008	0	A	2.5000E-01	1.2552E-01
H807	H807	1.008	0	A	2.5000E-01	1.2552E-01
F819	F819	18.9984	0	A	2.9000E-01	2.5104E-01
F817	F817	18.9984	0	A	2.9000E-01	2.5104E-01
S805	S805	32.06	0	A	3.5500E-01	1.0460E+00
O815	O815	15.999	0	A	2.9600E-01	7.1128E-01
H813	H813	1.008	0	A	2.5000E-01	1.2552E-01
N804	N804	14.007	0	A	3.2500E-01	7.1128E-01
O802	O802	15.999	0	A	2.9000E-01	5.8576E-01
O804	O804	15.999	0	A	2.9600E-01	8.7864E-01
O805	O805	15.999	0	A	2.9000E-01	5.8576E-01
H806	H806	1.008	0	A	2.5000E-01	1.2552E-01
C803	C803	12.011	0	A	3.5500E-01	2.9288E-01 ; for ec and emc
CT803	CT803	12.011	0	A	3.5000E-01	2.7614E-01 ; for tfmspyr
FSI     9       18.998000       -0.104000       A       3.11800000E-01  2.55400000E-01  ;F-FSI
SBT     16      32.066000       0.816000        A       3.55000000E-01  1.04600000E+00  ;S-FSI
NBT     7       14.000000       -0.528000       A       3.25000000E-01  7.11280000E-01  ;N-FSI
OBT     8       15.999000       -0.424000       A       3.15000000E-01  8.37360000E-01  ;O-FSI
Li      3       6.941000        0.800000        A       2.12600000E-01  7.64800000E-02  ;From   il.ff
