
;
; GENERATED BY LigParGen Server
; Jorgensen Lab @ Yale University 
;
;;;;;;;;;;;;;;;;;;;;;;;;;;;;;;;;;;;;;;;;;;;;;;;;;;;;;;;;;;;;;;;;;;;;
; Parameter file for Ctf2 with SCALED charges from Gaussian/Multiwfn
; First and second column of [ atomtypes ] are made identical
; Consistent required changes are made in [ atoms ]
; Edited by VMS on Nov-06-2025
; [ atomtypes ] are all defined separately. So commenting those
;;;;;;;;;;;;;;;;;;;;;;;;;;;;;;;;;;;;;;;;;;;;;;;;;;;;;;;;;;;;;;;;;;;;
;[ atomtypes ]
;  opls_810  O810    15.9990     0.000    A    2.96000E-01   7.11280E-01
;  opls_802  F802    18.9984     0.000    A    2.90000E-01   2.51040E-01
;  opls_807  C807    12.0110     0.000    A    3.55000E-01   3.17984E-01
;  opls_809  O809    15.9990     0.000    A    2.96000E-01   7.11280E-01
;  opls_800  C800    12.0110     0.000    A    3.50000E-01   2.76144E-01
;  opls_812  F812    18.9984     0.000    A    2.90000E-01   2.51040E-01
;  opls_806  O806    15.9990     0.000    A    2.96000E-01   7.11280E-01
;  opls_811  C811    12.0110     0.000    A    3.50000E-01   2.76144E-01
;  opls_805  O805    15.9990     0.000    A    2.96000E-01   7.11280E-01
;  opls_801  F801    18.9984     0.000    A    2.90000E-01   2.51040E-01
;  opls_813  F813    18.9984     0.000    A    2.90000E-01   2.51040E-01
;  opls_804  S804    32.0600     0.000    A    3.55000E-01   1.04600E+00
;  opls_815  H815     1.0080     0.000    A    2.50000E-01   1.25520E-01
;  opls_814  F814    18.9984     0.000    A    2.90000E-01   2.51040E-01
;  opls_803  F803    18.9984     0.000    A    2.90000E-01   2.51040E-01
;  opls_808  S808    32.0600     0.000    A    3.55000E-01   1.04600E+00
[ moleculetype ]
; Name               nrexcl
CT2                   3

[ atoms ]
;nr	type	resnr	residue	atom	cgnr	charge_scaled	mass
1	CFCT2	1	CT2	C00	1	0.370937	12.011
2	FCT2	1	CT2	F01	1	-0.152412	18.9984
3	FCT2	1	CT2	F02	1	-0.152412	18.9984
4	FCT2	1	CT2	F03	1	-0.152412	18.9984
5	SCT2	1	CT2	S04	1	0.688077	32.06
6	OCT2	1	CT2	O05	1	-0.414971	15.999
7	OCT2	1	CT2	O06	1	-0.414971	15.999
8	CCT2	1	CT2	C07	1	-0.45867	12.011
9	SCT2	1	CT2	S08	1	0.685510	32.06
10	OCT2	1	CT2	O09	1	-0.414204	15.999
11	OCT2	1	CT2	O0A	1	-0.414204	15.999
12	CFCT2	1	CT2	C0B	1	0.372158	12.011
13	FCT2	1	CT2	F0C	1	-0.152672	18.9984
14	FCT2	1	CT2	F0D	1	-0.152672	18.9984
15	FCT2	1	CT2	F0E	1	-0.152672	18.9984
16	HCT2	1	CT2	H0F	1	0.115590	1.008

[ bonds ]
    2     1     1      0.1360 307105.600
    3     1     1      0.1360 307105.600
    4     1     1      0.1360 307105.600
    5     1     1      0.1770 284512.000
    6     5     1      0.1440 585760.000
    7     5     1      0.1440 585760.000
    8     5     1      0.1770 284512.000
    9     8     1      0.1760 209200.000
   10     9     1      0.1440 585760.000
   11     9     1      0.1440 585760.000
   12     9     1      0.1770 284512.000
   13    12     1      0.1360 307105.600
   14    12     1      0.1360 307105.600
   15    12     1      0.1360 307105.600
   16     8     1      0.1080 284512.000

[ angles ]
;  ai    aj    ak funct            c0            c1            c2            c3 
    2     1     3     1    109.100    644.336
    2     1     4     1    109.100    644.336
    2     1     5     1    109.500    418.400
    1     5     6     1    108.900    619.232
    1     5     7     1    108.900    619.232
    1     5     8     1    102.000    518.816
    5     8     9     1    118.760    505.678
    8     9    10     1    107.200    619.232
    8     9    11     1    107.200    619.232
    8     9    12     1    102.000    518.816
    9    12    13     1    109.500    418.400
    9    12    14     1    109.500    418.400
    9    12    15     1    109.500    418.400
    5     8    16     1    118.760    505.678
    9     8    16     1    118.760    505.678
    3     1     4     1    109.100    644.336
    4     1     5     1    109.500    418.400
    3     1     5     1    109.500    418.400
   14    12    15     1    109.100    644.336
   10     9    12     1    108.900    619.232
    6     5     7     1    119.000    870.272
   13    12    14     1    109.100    644.336
   13    12    15     1    109.100    644.336
    6     5     8     1    107.200    619.232
   11     9    12     1    108.900    619.232
   10     9    11     1    119.000    870.272
    7     5     8     1    107.200    619.232

[ dihedrals ]
; IMPROPER DIHEDRAL ANGLES 
;  ai    aj    ak    al funct            c0            c1            c2            c3            c4            c5
    16     8     5     9    4        180.000     10.460     2  

[ dihedrals ]
; PROPER DIHEDRAL ANGLES
;  ai    aj    ak    al funct            c0            c1            c2            c3            c4            c5
   12    9    8    5        3       0.732   2.197   0.000  -2.929  -0.000   0.000
    8    5    1    4        3       0.732   2.197   0.000  -2.929  -0.000   0.000
    8    5    1    3        3       0.732   2.197   0.000  -2.929  -0.000   0.000
    8    5    1    2        3       0.732   2.197   0.000  -2.929  -0.000   0.000
   13   12    9    8        3       0.732   2.197   0.000  -2.929  -0.000   0.000
   14   12    9    8        3       0.732   2.197   0.000  -2.929  -0.000   0.000
   15   12    9    8        3       0.732   2.197   0.000  -2.929  -0.000   0.000
   15   12    9   11        3       0.000   0.000   0.000  -0.000  -0.000   0.000
   14   12    9   10        3       0.000   0.000   0.000  -0.000  -0.000   0.000
   13   12    9   11        3       0.000   0.000   0.000  -0.000  -0.000   0.000
   15   12    9   10        3       0.000   0.000   0.000  -0.000  -0.000   0.000
   13   12    9   10        3       0.000   0.000   0.000  -0.000  -0.000   0.000
   14   12    9   11        3       0.000   0.000   0.000  -0.000  -0.000   0.000
   16    8    9   12        3       0.732   2.197   0.000  -2.929  -0.000   0.000
   16    8    5    1        3       0.732   2.197   0.000  -2.929  -0.000   0.000
   16    8    9   10        3       0.732   2.197   0.000  -2.929  -0.000   0.000
   16    8    5    6        3       0.732   2.197   0.000  -2.929  -0.000   0.000
   16    8    5    7        3       0.732   2.197   0.000  -2.929  -0.000   0.000
   16    8    9   11        3       0.732   2.197   0.000  -2.929  -0.000   0.000
    7    5    1    4        3       0.000   0.000   0.000  -0.000  -0.000   0.000
    6    5    1    3        3       0.000   0.000   0.000  -0.000  -0.000   0.000
    6    5    1    4        3       0.000   0.000   0.000  -0.000  -0.000   0.000
    7    5    1    2        3       0.000   0.000   0.000  -0.000  -0.000   0.000
    6    5    1    2        3       0.000   0.000   0.000  -0.000  -0.000   0.000
    7    5    1    3        3       0.000   0.000   0.000  -0.000  -0.000   0.000
   11    9    8    5        3       0.000   0.000   0.000  -0.000  -0.000   0.000
   10    9    8    5        3       0.000   0.000   0.000  -0.000  -0.000   0.000
    9    8    5    1        3       0.732   2.197   0.000  -2.929  -0.000   0.000
    9    8    5    7        3       0.000   0.000   0.000  -0.000  -0.000   0.000
    9    8    5    6        3       0.000   0.000   0.000  -0.000  -0.000   0.000

[ pairs ]
     2     6    1
     3     6    1
     2     7    1
     4     6    1
     3     7    1
     2     8    1
     1     9    1
     4     7    1
     3     8    1
     4     8    1
     6     9    1
     5    10    1
     7     9    1
     5    11    1
     5    12    1
     1    16    1
     8    13    1
     8    14    1
     6    16    1
    10    13    1
     8    15    1
     7    16    1
    11    13    1
    10    14    1
    11    14    1
    10    15    1
    11    15    1
    10    16    1
    11    16    1
    12    16    1
