; GENERATED BY LigParGen Server
; Jorgensen Lab @ Yale University
;;;;;;;;;;;;;;;;;;;;;;;;;;;;;;;;;;;;;;;;;;;;;;;;;;;;;;;;;;;;;;;;;;;;
; Parameter file for EC with UNSCALED charges from Gaussian/Multiwfn
; First and second column of [ atomtypes ] are made identical
; Consistent required changes are made in [ atoms ]
; Edited by VMS on Nov-06-2025
; [ atomtypes ] are all defined separately. So commenting those
;;;;;;;;;;;;;;;;;;;;;;;;;;;;;;;;;;;;;;;;;;;;;;;;;;;;;;;;;;;;;;;;;;;;

;[ atomtypes ]
; at.name	at.num/b_type	mass	charge	ptype	sigma	epsilon
;O802	O802	15.999	0	A	2.90E-01	5.86E-01
;C801	C801	12.011	0	A	3.50E-01	2.76E-01
;C803	C803	12.011	0	A	3.55E-01	2.93E-01
;H809	H809	1.008	0	A	2.50E-01	1.26E-01
;H806	H806	1.008	0	A	2.50E-01	1.26E-01
;H807	H807	1.008	0	A	2.50E-01	1.26E-01
;O804	O804	15.999	0	A	2.96E-01	8.79E-01
;H808	H808	1.008	0	A	2.50E-01	1.26E-01
;O805	O805	15.999	0	A	2.90E-01	5.86E-01
;C800	C800	12.011	0	A	3.50E-01	2.76E-01

[ moleculetype ]
; Name               nrexcl
EC                   3

[ atoms ]
;nr	N/A	resnr	residue	atom	cgnr	charge	mass
1	C800	1	EC	C00	1	0.173300	12.011
2	C801	1	EC	C01	1	0.157710	12.011
3	O802	1	EC	O02	1	-0.421330	15.999
4	C803	1	EC	C03	1	0.932490	12.011
5	O804	1	EC	O04	1	-0.590630	15.999
6	O805	1	EC	O05	1	-0.423800	15.999
7	H806	1	EC	H06	1	0.041180	1.008
8	H807	1	EC	H07	1	0.041180	1.008
9	H808	1	EC	H08	1	0.044950	1.008
10	H809	1	EC	H09	1	0.044950	1.008

[ bonds ]
    2     1     1      0.1529 224262.400
    3     2     1      0.1410 267776.000
    4     3     1      0.1327 179075.200
    5     4     1      0.1229 476976.000
    6     1     1      0.1410 267776.000
    7     1     1      0.1090 284512.000
    8     1     1      0.1090 284512.000
    9     2     1      0.1090 284512.000
   10     2     1      0.1090 284512.000
    6     4     1      0.1327 179075.200

[ angles ]
;  ai    aj    ak funct            c0            c1            c2            c3 
    1     2     3     1    109.500    418.400
    2     3     4     1    116.900    694.544
    3     4     5     1    123.400    694.544
    2     1     6     1    109.500    418.400
    2     1     7     1    110.700    313.800
    2     1     8     1    110.700    313.800
    1     2     9     1    110.700    313.800
    1     2    10     1    110.700    313.800
    5     4     6     1    123.400    694.544
    6     1     7     1    109.500    292.880
    1     6     4     1    116.900    694.544
    9     2    10     1    107.800    276.144
    7     1     8     1    107.800    276.144
    3     4     6     1    118.180    584.923
    6     1     8     1    109.500    292.880
    3     2     9     1    109.500    292.880
    3     2    10     1    109.500    292.880

[ dihedrals ]
; IMPROPER DIHEDRAL ANGLES 
;  ai    aj    ak    al funct            c0            c1            c2            c3            c4            c5
     3     4     5     6    4        180.000     43.932     2  

[ dihedrals ]
; PROPER DIHEDRAL ANGLES
;  ai    aj    ak    al funct            c0            c1            c2            c3            c4            c5
    4    3    2    1        3      -2.197   5.201   0.527  -3.531  -0.000   0.000
    4    6    1    2        3      -2.197   5.201   0.527  -3.531  -0.000   0.000
   10    2    1    7        3       0.628   1.883   0.000  -2.510  -0.000   0.000
    9    2    1    7        3       0.628   1.883   0.000  -2.510  -0.000   0.000
    9    2    1    8        3       0.628   1.883   0.000  -2.510  -0.000   0.000
   10    2    1    8        3       0.628   1.883   0.000  -2.510  -0.000   0.000
   10    2    1    6        3       0.979   2.937   0.000  -3.916  -0.000   0.000
    8    1    2    3        3       0.979   2.937   0.000  -3.916  -0.000   0.000
    9    2    1    6        3       0.979   2.937   0.000  -3.916  -0.000   0.000
    7    1    2    3        3       0.979   2.937   0.000  -3.916  -0.000   0.000
    9    2    3    4        3       0.414   1.243   0.000  -1.657  -0.000   0.000
    7    1    6    4        3       0.414   1.243   0.000  -1.657  -0.000   0.000
   10    2    3    4        3       0.414   1.243   0.000  -1.657  -0.000   0.000
    8    1    6    4        3       0.414   1.243   0.000  -1.657  -0.000   0.000
    5    4    3    2        3      21.439   0.000  -21.439  -0.000  -0.000   0.000
    5    4    6    1        3      21.439   0.000  -21.439  -0.000  -0.000   0.000
    3    4    6    1        3      31.206  -9.768  -21.439  -0.000  -0.000   0.000
    6    4    3    2        3      31.206  -9.768  -21.439  -0.000  -0.000   0.000
    6    1    2    3        3      -1.151   1.151   0.000  -0.000  -0.000   0.000

[ pairs ]
     1     5    1
     2     5    1
     3     7    1
     4     7    1
     3     8    1
     4     8    1
     4     9    1
     4    10    1
     6     9    1
     7     9    1
     6    10    1
     8     9    1
     7    10    1
     8    10    1
