; GENERATED BY LigParGen Server
; Jorgensen Lab @ Yale University 
;;;;;;;;;;;;;;;;;;;;;;;;;;;;;;;;;;;;;;;;;;;;;;;;;;;;;;;;;;;;;;;;;;;;
; Parameter file for EMC with scaled charges from Gaussian/Multiwfn
; First and second column of [ atomtypes ] are made identical
; Consistent required changes are made in [ atoms ]
; Edited by VMS on Nov-06-2025
; [ atomtypes ] are all defined separately. So commenting those
;;;;;;;;;;;;;;;;;;;;;;;;;;;;;;;;;;;;;;;;;;;;;;;;;;;;;;;;;;;;;;;;;;;;

;[ atomtypes ]
; at.name at.num/b_type	mass	charge	ptype	sigma	epsilon
;O802	O802	15.999	0	A	2.90E-01	5.86E-01
;H810	H810	1.008	0	A	2.50E-01	1.26E-01
;C806	C806	12.011	0	A	3.50E-01	2.76E-01
;C801	C801	12.011	0	A	3.50E-01	2.76E-01
;C803	C803	12.011	0	A	3.55E-01	2.93E-01
;H809	H809	1.008	0	A	2.50E-01	1.26E-01
;H814	H814	1.008	0	A	2.50E-01	1.26E-01
;H808	H808	1.008	0	A	2.50E-01	1.26E-01
;H812	H812	1.008	0	A	2.50E-01	1.26E-01
;H807	H807	1.008	0	A	2.50E-01	1.26E-01
;O804	O804	15.999	0	A	2.96E-01	8.79E-01
;H813	H813	1.008	0	A	2.50E-01	1.26E-01
;O805	O805	15.999	0	A	2.90E-01	5.86E-01
;C800	C800	12.011	0	A	3.50E-01	2.76E-01
;H811	H811	1.008	0	A	2.50E-01	1.26E-01

[ moleculetype ]
; Name               nrexcl
EMC                   3

[ atoms ]
;nr	type   resnr	residue	atom	cgnr	charge_scaled	mass
1	C800	1	EMC	C00	1	-0.215254	12.011
2	C801	1	EMC	C01	1	0.364093	12.011
3	O802	1	EMC	O02	1	-0.438345	15.999
4	C803	1	EMC	C03	1	0.799609	12.011
5	O804	1	EMC	O04	1	-0.477952	15.999
6	O805	1	EMC	O05	1	-0.348162	15.999
7	C806	1	EMC	C06	1	0.068504	12.011
8	H807	1	EMC	H07	1	0.056789	1.008
9	H808	1	EMC	H08	1	0.056789	1.008
10	H809	1	EMC	H09	1	0.056789	1.008
11	H810	1	EMC	H0A	1	-0.025066	1.008
12	H811	1	EMC	H0B	1	-0.025066	1.008
13	H812	1	EMC	H0C	1	0.042424	1.008
14	H813	1	EMC	H0D	1	0.042424	1.008
15	H814	1	EMC	H0E	1	0.042424	1.008

[ bonds ]
    2     1     1      0.1529 224262.400
    3     2     1      0.1410 267776.000
    4     3     1      0.1327 179075.200
    5     4     1      0.1229 476976.000
    6     4     1      0.1327 179075.200
    7     6     1      0.1410 267776.000
    8     1     1      0.1090 284512.000
    9     1     1      0.1090 284512.000
   10     1     1      0.1090 284512.000
   11     2     1      0.1090 284512.000
   12     2     1      0.1090 284512.000
   13     7     1      0.1090 284512.000
   14     7     1      0.1090 284512.000
   15     7     1      0.1090 284512.000

[ angles ]
;  ai    aj    ak funct            c0            c1            c2            c3 
    1     2     3     1    109.500    418.400
    2     3     4     1    116.900    694.544
    3     4     5     1    123.400    694.544
    3     4     6     1    118.180    584.923
    4     6     7     1    116.900    694.544
    2     1     8     1    110.700    313.800
    2     1     9     1    110.700    313.800
    2     1    10     1    110.700    313.800
    1     2    11     1    110.700    313.800
    1     2    12     1    110.700    313.800
    6     7    13     1    109.500    292.880
    6     7    14     1    109.500    292.880
    6     7    15     1    109.500    292.880
    5     4     6     1    123.400    694.544
    8     1    10     1    107.800    276.144
   11     2    12     1    107.800    276.144
   13     7    14     1    107.800    276.144
    8     1     9     1    107.800    276.144
    3     2    11     1    109.500    292.880
   14     7    15     1    107.800    276.144
    3     2    12     1    109.500    292.880
    9     1    10     1    107.800    276.144
   13     7    15     1    107.800    276.144

[ dihedrals ]
; IMPROPER DIHEDRAL ANGLES 
;  ai    aj    ak    al funct            c0            c1            c2            c3            c4            c5
     6     4     3     5    4        180.000     43.932     2  

[ dihedrals ]
; PROPER DIHEDRAL ANGLES
;  ai    aj    ak    al funct            c0            c1            c2            c3            c4            c5
    4    3    2    1        3      -2.197   5.201   0.527  -3.531  -0.000   0.000
    7    6    4    5        3      21.439   0.000  -21.439  -0.000  -0.000   0.000
    7    6    4    3        3      31.206  -9.768  -21.439  -0.000  -0.000   0.000
   12    2    1    8        3       0.628   1.883   0.000  -2.510  -0.000   0.000
   12    2    1    9        3       0.628   1.883   0.000  -2.510  -0.000   0.000
   12    2    1   10        3       0.628   1.883   0.000  -2.510  -0.000   0.000
   11    2    1    9        3       0.628   1.883   0.000  -2.510  -0.000   0.000
   11    2    1   10        3       0.628   1.883   0.000  -2.510  -0.000   0.000
   11    2    1    8        3       0.628   1.883   0.000  -2.510  -0.000   0.000
    9    1    2    3        3       0.979   2.937   0.000  -3.916  -0.000   0.000
   10    1    2    3        3       0.979   2.937   0.000  -3.916  -0.000   0.000
    8    1    2    3        3       0.979   2.937   0.000  -3.916  -0.000   0.000
   13    7    6    4        3       0.414   1.243   0.000  -1.657  -0.000   0.000
   15    7    6    4        3       0.414   1.243   0.000  -1.657  -0.000   0.000
   11    2    3    4        3       0.414   1.243   0.000  -1.657  -0.000   0.000
   14    7    6    4        3       0.414   1.243   0.000  -1.657  -0.000   0.000
   12    2    3    4        3       0.414   1.243   0.000  -1.657  -0.000   0.000
    5    4    3    2        3      21.439   0.000  -21.439  -0.000  -0.000   0.000
    6    4    3    2        3      31.206  -9.768  -21.439  -0.000  -0.000   0.000

[ pairs ]
     1     4    1
     2     5    1
     2     6    1
     3     7    1
     3     8    1
     5     7    1
     3     9    1
     3    10    1
     4    11    1
     4    12    1
     4    13    1
     4    14    1
     8    11    1
     4    15    1
     9    11    1
     8    12    1
    10    11    1
     9    12    1
    10    12    1
