
;
; GENERATED BY LigParGen Server
; Jorgensen Lab @ Yale University 
;
;;;;;;;;;;;;;;;;;;;;;;;;;;;;;;;;;;;;;;;;;;;;;;;;;;;;;;;;;;;;;;;;;;;;
; Parameter file for FEC with UNSCALED charges from Gaussian/Multiwfn
; First and second column of [ atomtypes ] are made identical
; Consistent required changes are made in [ atoms ]
; Edited by VMS on Sept-30-2026
; NOTE: O804 is changed to OFC1 to distinguish from O804 in other molecules
; [ atomtypes ] are all defined separately. So commenting those
;;;;;;;;;;;;;;;;;;;;;;;;;;;;;;;;;;;;;;;;;;;;;;;;;;;;;;;;;;;;;;;;;;;;



;[ atomtypes ]
;  opls_805  C805    12.0110     0.000    A    3.55000E-01   2.92880E-01
;  opls_801  C801    12.0110     0.000    A    3.50000E-01   2.76144E-01
;  opls_809  H809     1.0080     0.000    A    2.50000E-01   1.25520E-01
;  opls_806  O806    15.9990     0.000    A    2.96000E-01   8.78640E-01
;  opls_808  H808     1.0080     0.000    A    2.50000E-01   1.25520E-01
;  opls_804  O804    15.9990     0.000    A    2.90000E-01   5.85760E-01
;  opls_802  C802    12.0110     0.000    A    3.50000E-01   2.76144E-01
;  opls_807  H807     1.0080     0.000    A    2.50000E-01   1.25520E-01
;  opls_800  O800    15.9990     0.000    A    2.90000E-01   5.85760E-01
;  opls_803  F803    18.9984     0.000    A    2.90000E-01   2.51040E-01

[ moleculetype ]
; Name               nrexcl
FEC                   3
[ atoms ]
;   nr       type  resnr residue  atom   cgnr     charge       mass  
1	O800	1	FEC	O00	1	-0.363111	15.999
2	C801	1	FEC	C01	1	0.051898	12.011
3	C802	1	FEC	C02	1	0.380004	12.011
4	F803	1	FEC	F03	1	-0.236227	18.9984
5	OFC1	1	FEC	O04	1	-0.387847	15.999
6	C805	1	FEC	C05	1	0.858680	12.011
7	O806	1	FEC	O06	1	-0.531997	15.999
8	H807	1	FEC	H07	1	0.086606	1.008
9	H808	1	FEC	H08	1	0.086606	1.008
10	H809	1	FEC	H09	1	0.055388	1.008


[ bonds ]
    2     1     1      0.1410 267776.000
    3     2     1      0.1529 224262.400
    4     3     1      0.1360 307105.600
    5     3     1      0.1410 267776.000
    6     1     1      0.1327 179075.200
    7     6     1      0.1229 476976.000
    8     2     1      0.1090 284512.000
    9     2     1      0.1090 284512.000
   10     3     1      0.1090 284512.000
    6     5     1      0.1327 179075.200

[ angles ]
;  ai    aj    ak funct            c0            c1            c2            c3 
    1     2     3     1    109.500    418.400
    2     3     4     1    109.500    418.400
    2     3     5     1    109.500    418.400
    2     1     6     1    116.900    694.544
    1     6     7     1    123.400    694.544
    1     2     8     1    109.500    292.880
    1     2     9     1    109.500    292.880
    2     3    10     1    110.700    313.800
    8     2     9     1    107.800    276.144
    4     3     5     1    110.580    432.207
    3     5     6     1    116.900    694.544
    5     3    10     1    109.500    292.880
    1     6     5     1    118.180    584.923
    4     3    10     1    107.000    334.720
    3     2     8     1    110.700    313.800
    5     6     7     1    123.400    694.544
    3     2     9     1    110.700    313.800

[ dihedrals ]
; IMPROPER DIHEDRAL ANGLES 
;  ai    aj    ak    al funct            c0            c1            c2            c3            c4            c5
     7     6     1     5    4        180.000     43.932     2  

[ dihedrals ]
; PROPER DIHEDRAL ANGLES
;  ai    aj    ak    al funct            c0            c1            c2            c3            c4            c5
    6    1    2    3        3      -2.197   5.201   0.527  -3.531  -0.000   0.000
    6    5    3    2        3      -2.197   5.201   0.527  -3.531  -0.000   0.000
    6    5    3    4        3       0.414   1.243   0.000  -1.657  -0.000   0.000
    3    5    6    1        3      31.206  -9.768  -21.439  -0.000  -0.000   0.000
    4    3    2    1        3       1.130   3.389   0.000  -4.519  -0.000   0.000
    8    2    3    4        3       0.837   2.510   0.000  -3.347  -0.000   0.000
    9    2    3    4        3       0.837   2.510   0.000  -3.347  -0.000   0.000
   10    3    2    9        3       0.628   1.883   0.000  -2.510  -0.000   0.000
   10    3    2    8        3       0.628   1.883   0.000  -2.510  -0.000   0.000
    8    2    3    5        3       0.979   2.937   0.000  -3.916  -0.000   0.000
   10    3    2    1        3       0.979   2.937   0.000  -3.916  -0.000   0.000
    9    2    3    5        3       0.979   2.937   0.000  -3.916  -0.000   0.000
    9    2    1    6        3       0.414   1.243   0.000  -1.657  -0.000   0.000
    8    2    1    6        3       0.414   1.243   0.000  -1.657  -0.000   0.000
   10    3    5    6        3       0.414   1.243   0.000  -1.657  -0.000   0.000
    7    6    5    3        3      21.439   0.000  -21.439  -0.000  -0.000   0.000
    7    6    1    2        3      21.439   0.000  -21.439  -0.000  -0.000   0.000
    5    6    1    2        3      31.206  -9.768  -21.439  -0.000  -0.000   0.000
    5    3    2    1        3      -1.151   1.151   0.000  -0.000  -0.000   0.000

[ pairs ]
     1     4    1
     2     7    1
     4     6    1
     3     7    1
     1    10    1
     4     8    1
     5     8    1
     4     9    1
     6     8    1
     5     9    1
     6     9    1
     6    10    1
     8    10    1
     9    10    1
