; GENERATED BY LigParGen Server
; Jorgensen Lab @ Yale University
;;;;;;;;;;;;;;;;;;;;;;;;;;;;;;;;;;;;;;;;;;;;;;;;;;;;;;;;;;;;;;;;;;;;
; Parameter file for TFMSPyr with scaled charges from Gaussian/Multiwfn
; First and second column of [ atomtypes ] are made identical
; Consistent required changes are made in [ atoms ]
; Edited by VMS on Oct-30-2025
; [ atomtypes ] are all defined separately. So commenting those
; NOTE: C803 here is changed to CT803 to avoid redundancy with EC/EMC
;;;;;;;;;;;;;;;;;;;;;;;;;;;;;;;;;;;;;;;;;;;;;;;;;;;;;;;;;;;;;;;;;;;;;;;

; [ atomtypes ]
; at.name	at.num/b_type	mass	charge	ptype	sigma	epsilon
;H810	H810	1.008	0	A	2.50E-01	1.26E-01
;C802	C802	12.011	0	A	3.50E-01	2.76E-01
;F818	F818	18.9984	0	A	2.90E-01	2.51E-01
;C800	C800	12.011	0	A	3.50E-01	2.76E-01
;C801	C801	12.011	0	A	3.50E-01	2.76E-01
;H809	H809	1.008	0	A	2.50E-01	1.26E-01
;H814	H814	1.008	0	A	2.50E-01	1.26E-01
;H808	H808	1.008	0	A	2.50E-01	1.26E-01
;CT803	C803	12.011	0	A	3.50E-01	2.76E-01
;H812	H812	1.008	0	A	2.50E-01	1.26E-01
;C806	C806	12.011	0	A	3.50E-01	2.76E-01
;O816	O816	15.999	0	A	2.96E-01	7.11E-01
;H811	H811	1.008	0	A	2.50E-01	1.26E-01
;H807	H807	1.008	0	A	2.50E-01	1.26E-01
;F819	F819	18.9984	0	A	2.90E-01	2.51E-01
;F817	F817	18.9984	0	A	2.90E-01	2.51E-01
;S805	S805	32.06	0	A	3.55E-01	1.05E+00
;O815	O815	15.999	0	A	2.96E-01	7.11E-01
;H813	H813	1.008	0	A	2.50E-01	1.26E-01
;N804	N804	14.007	0	A	3.25E-01	7.11E-01

[ moleculetype ]
; Name               nrexcl
TFP                   3

[ atoms ]
;nr	type	resnr	residue	atom	cgnr	charge_scaled	mass
1	C800	1	TFP	C00	1	0.073736	12.011
2	C801	1	TFP	C01	1	-0.016488	12.011
3	C802	1	TFP	C02	1	-0.016488	12.011
4	C803	1	TFP	C03	1	0.073736	12.011
5	N804	1	TFP	N04	1	-0.20176	14.007
6	S805	1	TFP	S05	1	0.695376	32.06
7	C806	1	TFP	C06	1	0.303296	12.011
8	H807	1	TFP	H07	1	0.027512	1.008
9	H808	1	TFP	H08	1	0.027512	1.008
10	H809	1	TFP	H09	1	0.027328	1.008
11	H810	1	TFP	H0A	1	0.027328	1.008
12	H811	1	TFP	H0B	1	0.016912	1.008
13	H812	1	TFP	H0C	1	0.016912	1.008
14	H813	1	TFP	H0D	1	0.027056	1.008
15	H814	1	TFP	H0E	1	0.027056	1.008
16	O815	1	TFP	O0F	1	-0.379288	15.999
17	O816	1	TFP	O0G	1	-0.379288	15.999
18	F817	1	TFP	F0H	1	-0.116816	18.9984
19	F818	1	TFP	F0I	1	-0.116816	18.9984
20	F819	1	TFP	F0J	1	-0.116816	18.9984

[ bonds ]
    2     1     1      0.1529 224262.400
    3     2     1      0.1529 224262.400
    4     3     1      0.1529 224262.400
    5     1     1      0.1449 282001.600
    6     5     1      0.1670 363171.200
    7     6     1      0.1770 284512.000
    8     1     1      0.1090 284512.000
    9     1     1      0.1090 284512.000
   10     2     1      0.1090 284512.000
   11     2     1      0.1090 284512.000
   12     3     1      0.1090 284512.000
   13     3     1      0.1090 284512.000
   14     4     1      0.1090 284512.000
   15     4     1      0.1090 284512.000
   16     6     1      0.1440 585760.000
   17     6     1      0.1440 585760.000
   18     7     1      0.1360 307105.600
   19     7     1      0.1360 307105.600
   20     7     1      0.1360 307105.600
    5     4     1      0.1449 282001.600

[ angles ]
;  ai    aj    ak funct            c0            c1            c2            c3 
    1     2     3     1    112.700    488.273
    2     3     4     1    112.700    488.273
    2     1     5     1    109.700    669.440
    1     5     6     1    120.000    418.400
    5     6     7     1    103.000    836.800
    2     1     8     1    110.700    313.800
    2     1     9     1    110.700    313.800
    1     2    10     1    110.700    313.800
    1     2    11     1    110.700    313.800
    2     3    12     1    110.700    313.800
    2     3    13     1    110.700    313.800
    3     4    14     1    110.700    313.800
    3     4    15     1    110.700    313.800
    5     6    16     1    107.000   1004.160
    5     6    17     1    107.000   1004.160
    6     7    18     1    109.500    418.400
    6     7    19     1    109.500    418.400
    6     7    20     1    109.500    418.400
    7     6    17     1    108.900    619.232
   18     7    19     1    109.100    644.336
    5     4    14     1    109.500    292.880
    5     1     8     1    109.500    292.880
   19     7    20     1    109.100    644.336
   18     7    20     1    109.100    644.336
    4     5     6     1    120.000    418.400
   16     6    17     1    119.000    870.272
    1     5     4     1    118.000    418.400
   14     4    15     1    107.800    276.144
    8     1     9     1    107.800    276.144
    5     1     9     1    109.500    292.880
    3     2    11     1    110.700    313.800
   10     2    11     1    107.800    276.144
    5     4    15     1    109.500    292.880
    7     6    16     1    108.900    619.232
   12     3    13     1    107.800    276.144
    4     3    12     1    110.700    313.800
    4     3    13     1    110.700    313.800
    3     4     5     1    109.700    669.440
    3     2    10     1    110.700    313.800

[ dihedrals ]
; IMPROPER DIHEDRAL ANGLES 
;  ai    aj    ak    al funct            c0            c1            c2            c3            c4            c5
     6     5     1     4    4        180.000     10.460     2  

[ dihedrals ]
; PROPER DIHEDRAL ANGLES
;  ai    aj    ak    al funct            c0            c1            c2            c3            c4            c5
    7    6    5    1        3      -2.897  11.182  12.410  -20.694  -0.000   0.000
    7    6    5    4        3      -2.897  11.182  12.410  -20.694  -0.000   0.000
    4    3    2    1        3       2.301  -1.464   0.837  -1.674  -0.000   0.000
    3    4    5    1        3       6.872  -9.943   3.071  -0.000  -0.000   0.000
    4    5    1    2        3       6.872  -9.943   3.071  -0.000  -0.000   0.000
   18    7    6    5        3       0.000   0.000   0.000  -0.000  -0.000   0.000
   19    7    6    5        3       0.000   0.000   0.000  -0.000  -0.000   0.000
   20    7    6    5        3       0.000   0.000   0.000  -0.000  -0.000   0.000
   20    7    6   16        3       0.000   0.000   0.000  -0.000  -0.000   0.000
   19    7    6   17        3       0.000   0.000   0.000  -0.000  -0.000   0.000
   20    7    6   17        3       0.000   0.000   0.000  -0.000  -0.000   0.000
   18    7    6   17        3       0.000   0.000   0.000  -0.000  -0.000   0.000
   18    7    6   16        3       0.000   0.000   0.000  -0.000  -0.000   0.000
   19    7    6   16        3       0.000   0.000   0.000  -0.000  -0.000   0.000
    9    1    2    3        3       0.628   1.883   0.000  -2.510  -0.000   0.000
   14    4    3    2        3       0.628   1.883   0.000  -2.510  -0.000   0.000
   15    4    3    2        3       0.628   1.883   0.000  -2.510  -0.000   0.000
   12    3    2    1        3       0.628   1.883   0.000  -2.510  -0.000   0.000
    8    1    2    3        3       0.628   1.883   0.000  -2.510  -0.000   0.000
   10    2    3    4        3       0.628   1.883   0.000  -2.510  -0.000   0.000
   13    3    2    1        3       0.628   1.883   0.000  -2.510  -0.000   0.000
   11    2    3    4        3       0.628   1.883   0.000  -2.510  -0.000   0.000
   13    3    2   11        3       0.628   1.883   0.000  -2.510  -0.000   0.000
   10    2    1    9        3       0.628   1.883   0.000  -2.510  -0.000   0.000
   11    2    1    8        3       0.628   1.883   0.000  -2.510  -0.000   0.000
   15    4    3   13        3       0.628   1.883   0.000  -2.510  -0.000   0.000
   11    2    1    9        3       0.628   1.883   0.000  -2.510  -0.000   0.000
   14    4    3   12        3       0.628   1.883   0.000  -2.510  -0.000   0.000
   13    3    2   10        3       0.628   1.883   0.000  -2.510  -0.000   0.000
   15    4    3   12        3       0.628   1.883   0.000  -2.510  -0.000   0.000
   14    4    3   13        3       0.628   1.883   0.000  -2.510  -0.000   0.000
   10    2    1    8        3       0.628   1.883   0.000  -2.510  -0.000   0.000
   12    3    2   11        3       0.628   1.883   0.000  -2.510  -0.000   0.000
   12    3    2   10        3       0.628   1.883   0.000  -2.510  -0.000   0.000
   10    2    1    5        3       0.971   2.912   0.000  -3.883  -0.000   0.000
   11    2    1    5        3       0.971   2.912   0.000  -3.883  -0.000   0.000
   13    3    4    5        3       0.971   2.912   0.000  -3.883  -0.000   0.000
   12    3    4    5        3       0.971   2.912   0.000  -3.883  -0.000   0.000
    9    1    5    4        3       0.000   0.000   0.000  -0.000  -0.000   0.000
    8    1    5    4        3       0.000   0.000   0.000  -0.000  -0.000   0.000
   15    4    5    1        3       0.000   0.000   0.000  -0.000  -0.000   0.000
   14    4    5    1        3       0.000   0.000   0.000  -0.000  -0.000   0.000
   15    4    5    6        3      -2.935  -1.914   6.096  -1.247  -0.000   0.000
    8    1    5    6        3      -2.935  -1.914   6.096  -1.247  -0.000   0.000
    9    1    5    6        3      -2.935  -1.914   6.096  -1.247  -0.000   0.000
   14    4    5    6        3      -2.935  -1.914   6.096  -1.247  -0.000   0.000
    5    1    2    3        3      -0.766   2.707   4.025  -5.966  -0.000   0.000
    5    4    3    2        3      -0.766   2.707   4.025  -5.966  -0.000   0.000
   16    6    5    1        3       0.000   0.000   0.000  -0.000  -0.000   0.000
   17    6    5    4        3       0.000   0.000   0.000  -0.000  -0.000   0.000
   17    6    5    1        3       0.000   0.000   0.000  -0.000  -0.000   0.000
   16    6    5    4        3       0.000   0.000   0.000  -0.000  -0.000   0.000
    6    5    4    3        3      -3.431  -3.008  10.598  -4.159  -0.000   0.000
    6    5    1    2        3      -3.431  -3.008  10.598  -4.159  -0.000   0.000

[ pairs ]
     2     6    1
     1     7    1
     3     6    1
     4     7    1
     3     8    1
     4     8    1
     3     9    1
     4     9    1
     1    12    1
     6     8    1
     4    10    1
     1    13    1
     6     9    1
     5    10    1
     4    11    1
     1    14    1
     5    11    1
     2    14    1
     1    15    1
     5    12    1
     2    15    1
     1    16    1
     8    10    1
     5    13    1
     1    17    1
     9    10    1
     8    11    1
     9    11    1
     6    14    1
     4    16    1
     6    15    1
     4    17    1
    10    12    1
    11    12    1
    10    13    1
     5    18    1
    11    13    1
     5    19    1
     5    20    1
    12    14    1
    13    14    1
    12    15    1
    13    15    1
    16    18    1
    17    18    1
    16    19    1
    17    19    1
    16    20    1
    17    20    1
